# This Makefile contains numerous rules

# Name of the executable
NAME = school

# The compiler to be used
CC = gcc

# The source files
SRC = school.c main.c

# The object files
OBJ = $(SRC:.c=.o)

# The program to delete files
RM = rm -f

# The rule to build the executable
all: $(OBJ)
	$(CC) $(OBJ) -o $(NAME)

# Deletes all Emacs and Vim temporary files along with the executable
clean:
	$(RM) *~ $(NAME)

# Deletes object files
oclean:
	$(RM) $(OBJ)

# Deletes all Emacs and Vim temporary files, the executable, and object files
fclean:	oclean clean

# Forces recompilation of all source files
re: oclean all
